data_166198-ICSD
#ï¿½2010 by Fachinformationszentrum Karlsruhe, and the U.S. Secretary of 
#Commerce on behalf of the United States.  All rights reserved.
_database_code_ICSD                166198
_audit_creation_date               2010/08/01
_chemical_name_common          'Gallium Oxide - Beta'
_chemical_formula_structural       'Ga2 O3'
_chemical_formula_sum              'Ga2 O3'
_publ_section_title
;
FPLAPW study of the structural, electronic, and optical properties of 
Ga2 O3: monoclinic and hexagonal phases
;
loop_
_citation_id
_citation_journal_abbrev
_citation_year
_citation_journal_volume
_citation_page_first
_citation_page_last
_citation_journal_id_ASTM
primary 'Journal of Alloys Compd.' 2010 488 148 156 JALCEU
_publ_author_name
;
Litimein, F.;Rached, D.;Khenata, R.;Baltache,H.
;
_cell_length_a                     12.208
_cell_length_b                     3.031
_cell_length_c                     5.751
_cell_angle_alpha                  90.
_cell_angle_beta                   103.63
_cell_angle_gamma                  90.
_cell_volume                       206.81
_cell_formula_units_Z              4
_symmetry_space_group_name_H-M     'C 1 2/m 1'
_symmetry_Int_Tables_number        12
loop_
_symmetry_equiv_pos_site_id
_symmetry_equiv_pos_as_xyz
  1	'-x, y, -z'
  2	'-x, -y, -z'
  3	'x, -y, z'
  4	'x, y, z'
  5	'-x+1/2, y+1/2, -z'
  6	'-x+1/2, -y+1/2, -z'
  7	'x+1/2, -y+1/2, z'
  8	'x+1/2, y+1/2, z'
loop_
_atom_type_symbol
_atom_type_oxidation_number
Ga3+	3
O2-	-2
loop_
_atom_site_label
_atom_site_type_symbol
_atom_site_symmetry_multiplicity
_atom_site_Wyckoff_symbol
_atom_site_fract_x
_atom_site_fract_y
_atom_site_fract_z
_atom_site_occupancy
_atom_site_attached_hydrogens
Ga1 Ga3+ 4 i 0.091 0. 0.795 1. 0 
Ga2 Ga3+ 4 i 0.341 0. 0.685 1. 0 
O1 O2- 4 i 0.166 0. 0.109 1. 0 
O2 O2- 4 i 0.496 0. 0.253 1. 0 
O3 O2- 4 i 0.827 0. 0.439 1. 0 

#End of data_166198-ICSD


